
Host: Luiss-MacBook-Pro-3.local

Timers On : Thu Dec  7 16:08:38 2023
Timers Off: Thu Dec  7 16:08:39 2023

Wall Time:        0.83 seconds

                                                       Time (seconds)
Module                                       User      System        Wall        Calls

--------------------------------------------------------------------------------------

**************************************************************************************

Host: Luiss-MacBook-Pro-3.local

Timers On : Thu Dec  7 16:09:01 2023
Timers Off: Thu Dec  7 16:09:02 2023

Wall Time:        0.97 seconds

                                                       Time (seconds)
Module                                       User      System        Wall        Calls

--------------------------------------------------------------------------------------

**************************************************************************************

Host: Luiss-MacBook-Pro-3.local

Timers On : Thu Dec  7 16:11:25 2023
Timers Off: Thu Dec  7 16:11:26 2023

Wall Time:        1.03 seconds

                                                       Time (seconds)
Module                                       User      System        Wall        Calls

--------------------------------------------------------------------------------------

**************************************************************************************

Host: Luiss-MacBook-Pro-3.local

Timers On : Thu Dec  7 16:40:17 2023
Timers Off: Thu Dec  7 16:40:17 2023

Wall Time:        0.47 seconds

                                                       Time (seconds)
Module                                       User      System        Wall        Calls

--------------------------------------------------------------------------------------

**************************************************************************************

Host: Luiss-MacBook-Pro-3.local

Timers On : Thu Dec  7 16:40:49 2023
Timers Off: Thu Dec  7 16:40:50 2023

Wall Time:        0.44 seconds

                                                       Time (seconds)
Module                                       User      System        Wall        Calls

--------------------------------------------------------------------------------------

**************************************************************************************

Host: Luiss-MacBook-Pro-3.local

Timers On : Thu Dec  7 16:44:15 2023
Timers Off: Thu Dec  7 16:44:15 2023

Wall Time:        0.31 seconds

                                                       Time (seconds)
Module                                       User      System        Wall        Calls

--------------------------------------------------------------------------------------

**************************************************************************************

Host: Luiss-MacBook-Pro-3.local

Timers On : Thu Dec  7 16:48:33 2023
Timers Off: Thu Dec  7 16:48:33 2023

Wall Time:        0.34 seconds

                                                       Time (seconds)
Module                                       User      System        Wall        Calls

--------------------------------------------------------------------------------------

**************************************************************************************

Host: Luiss-MacBook-Pro-3.local

Timers On : Thu Dec  7 16:48:54 2023
Timers Off: Thu Dec  7 16:48:54 2023

Wall Time:        0.34 seconds

                                                       Time (seconds)
Module                                       User      System        Wall        Calls

--------------------------------------------------------------------------------------

**************************************************************************************
